
;
; GENERATED BY LigParGen Server
; Jorgensen Lab @ Yale University 
; Edited by VMS-Aug-18-2026
; [ atomtypes ]
;  opls_803  H803     1.0080     0.000    A    2.50000E-01   1.25520E-01
;  opls_800  C800    12.0110     0.000    A    3.50000E-01   2.76144E-01
;  opls_804  H804     1.0080     0.000    A    2.50000E-01   1.25520E-01
;  opls_805  H805     1.0080     0.000    A    2.50000E-01   1.25520E-01
;  opls_801  C801    12.0110     0.000    A    3.30000E-01   2.76144E-01
;  opls_802  N802    14.0070     0.000    A    3.20000E-01   7.11280E-01

[ moleculetype ]
; Name               nrexcl
ACN                   3

[ atoms ]
;   nr       type  resnr residue  atom   cgnr     charge       mass  
     1   ACC0      1    ACN   C00      1     -0.142    12.0110 
     2   ACC1      1    ACN   C01      1     0.1563    12.0110 
     3   ACN0      1    ACN   N02      1    -0.3866    14.0070 
     4   ACH       1    ACN   H03      1     0.1241     1.0080 
     5   ACH       1    ACN   H04      1     0.1241     1.0080 
     6   ACH       1    ACN   H05      1     0.1241     1.0080 

[ bonds ]
    2     1     1      0.1470 326352.000
    3     2     1      0.1157 543920.000
    4     1     1      0.1090 284512.000
    5     1     1      0.1090 284512.000
    6     1     1      0.1090 284512.000

[ angles ]
;  ai    aj    ak funct            c0            c1            c2            c3 
    1     2     3     1    180.000   1255.200
    2     1     4     1    108.500    292.880
    2     1     5     1    108.500    292.880
    2     1     6     1    108.500    292.880
    4     1     5     1    107.800    276.144
    5     1     6     1    107.800    276.144
    4     1     6     1    107.800    276.144

[ dihedrals ]
; IMPROPER DIHEDRAL ANGLES 
;  ai    aj    ak    al funct            c0            c1            c2            c3            c4            c5

[ dihedrals ]
; PROPER DIHEDRAL ANGLES
;  ai    aj    ak    al funct            c0            c1            c2            c3            c4            c5
    4    1    2    3        3       0.000   0.000   0.000  -0.000  -0.000   0.000
    6    1    2    3        3       0.000   0.000   0.000  -0.000  -0.000   0.000
    5    1    2    3        3       0.000   0.000   0.000  -0.000  -0.000   0.000

[ pairs ]
     3     4    1
     3     5    1
     3     6    1
