
;
; GENERATED BY LigParGen Server
; Jorgensen Lab @ Yale University 
; edited by VMS-Aug-18-2026

;[ atomtypes ]
;  EG804  H804     1.0080     0.000    A    0.00000E+00   0.00000E+00
;  EG802  C802    12.0110     0.000    A    3.50000E-01   2.76144E-01
;  EG801  C801    12.0110     0.000    A    3.50000E-01   2.76144E-01
;  EG800  O800    15.9990     0.000    A    3.12000E-01   7.11280E-01
;  EG806  H806     1.0080     0.000    A    2.50000E-01   1.25520E-01
;  EG803  O803    15.9990     0.000    A    3.12000E-01   7.11280E-01
;  EG807  H807     1.0080     0.000    A    2.50000E-01   1.25520E-01
;  EG805  H805     1.0080     0.000    A    2.50000E-01   1.25520E-01
;  EG809  H809     1.0080     0.000    A    0.00000E+00   0.00000E+00
;  EG808  H808     1.0080     0.000    A    2.50000E-01   1.25520E-01

[ moleculetype ]
; Name               nrexcl
EGL                   3

[ atoms ]
;   nr       type  resnr residue  atom   cgnr     charge       mass  
     1   EGO       1    EGL   O00      1    -0.6893    15.9990 
     2   EGC       1    EGL   C01      1     0.0671    12.0110 
     3   EGC       1    EGL   C02      1     0.0671    12.0110 
     4   EGO       1    EGL   O03      1    -0.6893    15.9990 
     5   EGH1      1    EGL   H04      1     0.4102     1.0080 
     6   EGH2      1    EGL   H05      1     0.1060     1.0080 
     7   EGH2      1    EGL   H06      1     0.1060     1.0080 
     8   EGH2      1    EGL   H07      1     0.1060     1.0080 
     9   EGH2      1    EGL   H08      1     0.1060     1.0080 
    10   EGH1      1    EGL   H09      1     0.4102     1.0080 

[ bonds ]
    2     1     1      0.1410 267776.000
    3     2     1      0.1529 224262.400
    4     3     1      0.1410 267776.000
    5     1     1      0.0945 462750.400
    6     2     1      0.1090 284512.000
    7     2     1      0.1090 284512.000
    8     3     1      0.1090 284512.000
    9     3     1      0.1090 284512.000
   10     4     1      0.0945 462750.400

[ angles ]
;  ai    aj    ak funct            c0            c1            c2            c3 
    1     2     3     1    109.500    418.400
    2     3     4     1    109.500    418.400
    2     1     5     1    108.500    460.240
    1     2     6     1    109.500    292.880
    1     2     7     1    109.500    292.880
    2     3     8     1    110.700    313.800
    2     3     9     1    110.700    313.800
    3     4    10     1    108.500    460.240
    4     3     9     1    109.500    292.880
    8     3     9     1    107.800    276.144
    3     2     7     1    110.700    313.800
    3     2     6     1    110.700    313.800
    4     3     8     1    109.500    292.880
    6     2     7     1    107.800    276.144

[ dihedrals ]
; IMPROPER DIHEDRAL ANGLES 
;  ai    aj    ak    al funct            c0            c1            c2            c3            c4            c5

[ dihedrals ]
; PROPER DIHEDRAL ANGLES
;  ai    aj    ak    al funct            c0            c1            c2            c3            c4            c5
    8    3    2    6        3       0.628   1.883   0.000  -2.510  -0.000   0.000
    8    3    2    7        3       0.628   1.883   0.000  -2.510  -0.000   0.000
    9    3    2    6        3       0.628   1.883   0.000  -2.510  -0.000   0.000
    9    3    2    7        3       0.628   1.883   0.000  -2.510  -0.000   0.000
    7    2    3    4        3       0.979   2.937   0.000  -3.916  -0.000   0.000
    9    3    2    1        3       0.979   2.937   0.000  -3.916  -0.000   0.000
    6    2    3    4        3       0.979   2.937   0.000  -3.916  -0.000   0.000
    8    3    2    1        3       0.979   2.937   0.000  -3.916  -0.000   0.000
    6    2    1    5        3       0.736   2.209   0.000  -2.946  -0.000   0.000
    7    2    1    5        3       0.736   2.209   0.000  -2.946  -0.000   0.000
   10    4    3    2        3      -0.444   3.833   0.728  -4.117  -0.000   0.000
    5    1    2    3        3      -0.444   3.833   0.728  -4.117  -0.000   0.000
   10    4    3    8        3       0.736   2.209   0.000  -2.946  -0.000   0.000
   10    4    3    9        3       0.736   2.209   0.000  -2.946  -0.000   0.000
    4    3    2    1        3      19.891  -19.891   0.000  -0.000  -0.000   0.000

[ pairs ]
     1     4    1
     3     5    1
     1     8    1
     4     6    1
     1     9    1
     5     6    1
     4     7    1
     5     7    1
     2    10    1
     6     8    1
     7     8    1
     6     9    1
     7     9    1
     8    10    1
     9    10    1
