
;
; GENERATED BY LigParGen Server
; Jorgensen Lab @ Yale University 
; edited by VMS-Aug-18-2026
;[ atomtypes ]
;  MO803  H803     1.0080     0.000    A    2.50000E-01   1.25520E-01
;  MO800  C800    12.0110     0.000    A    3.50000E-01   2.76144E-01
;  MO801  O801    15.9990     0.000    A    3.12000E-01   7.11280E-01
;  MO805  H805     1.0080     0.000    A    0.00000E+00   0.00000E+00
;  MO802  H802     1.0080     0.000    A    2.50000E-01   1.25520E-01
;  MO804  H804     1.0080     0.000    A    2.50000E-01   1.25520E-01

[ moleculetype ]
; Name               nrexcl
MET                   3

[ atoms ]
;   nr       type  resnr residue  atom   cgnr     charge       mass  
     1   MOC      1    MET   C00      1     0.0507    12.0110 
     2   MOO      1    MET   O01      1    -0.6873    15.9990 
     3   MOH1     1    MET   H02      1     0.0768     1.0080 
     4   MOH1     1    MET   H03      1     0.0768     1.0080 
     5   MOH1     1    MET   H04      1     0.0768     1.0080 
     6   MOH2     1    MET   H05      1     0.4062     1.0080 

[ bonds ]
    2     1     1      0.1410 267776.000
    3     1     1      0.1090 284512.000
    4     1     1      0.1090 284512.000
    5     1     1      0.1090 284512.000
    6     2     1      0.0945 462750.400

[ angles ]
;  ai    aj    ak funct            c0            c1            c2            c3 
    2     1     3     1    109.500    292.880
    2     1     4     1    109.500    292.880
    2     1     5     1    109.500    292.880
    1     2     6     1    108.500    460.240
    3     1     4     1    107.800    276.144
    3     1     5     1    107.800    276.144
    4     1     5     1    107.800    276.144

[ dihedrals ]
; IMPROPER DIHEDRAL ANGLES 
;  ai    aj    ak    al funct            c0            c1            c2            c3            c4            c5

[ dihedrals ]
; PROPER DIHEDRAL ANGLES
;  ai    aj    ak    al funct            c0            c1            c2            c3            c4            c5
    6    2    1    3        3       0.736   2.209   0.000  -2.946  -0.000   0.000
    6    2    1    5        3       0.736   2.209   0.000  -2.946  -0.000   0.000
    6    2    1    4        3       0.736   2.209   0.000  -2.946  -0.000   0.000

[ pairs ]
     3     6    1
     4     6    1
     5     6    1
