
;
; GENERATED BY LigParGen Server
; Jorgensen Lab @ Yale University 
; edited by VMS-Aug-18-2026
;[ atomtypes ]
;  TG818  H818     1.0080     0.000    A    2.50000E-01   1.25520E-01
;  TG814  C814    12.0110     0.000    A    3.50000E-01   2.76144E-01
;  TG824  H824     1.0080     0.000    A    2.50000E-01   1.25520E-01
;  TG810  O810    15.9990     0.000    A    2.90000E-01   5.85760E-01
;  TG833  H833     1.0080     0.000    A    2.50000E-01   1.25520E-01
;  TG836  H836     1.0080     0.000    A    2.50000E-01   1.25520E-01
;  TG834  H834     1.0080     0.000    A    2.50000E-01   1.25520E-01
;  TG828  H828     1.0080     0.000    A    2.50000E-01   1.25520E-01
;  TG801  O801    15.9990     0.000    A    2.90000E-01   5.85760E-01
;  TG832  H832     1.0080     0.000    A    2.50000E-01   1.25520E-01
;  TG802  C802    12.0110     0.000    A    3.50000E-01   2.76144E-01
;  TG815  H815     1.0080     0.000    A    2.50000E-01   1.25520E-01
;  TG809  C809    12.0110     0.000    A    3.50000E-01   2.76144E-01
;  TG806  C806    12.0110     0.000    A    3.50000E-01   2.76144E-01
;  TG822  H822     1.0080     0.000    A    2.50000E-01   1.25520E-01
;  TG803  C803    12.0110     0.000    A    3.50000E-01   2.76144E-01
;  TG825  H825     1.0080     0.000    A    2.50000E-01   1.25520E-01
;  TG830  H830     1.0080     0.000    A    2.50000E-01   1.25520E-01
;  TG821  H821     1.0080     0.000    A    2.50000E-01   1.25520E-01
;  TG820  H820     1.0080     0.000    A    2.50000E-01   1.25520E-01
;  TG829  H829     1.0080     0.000    A    2.50000E-01   1.25520E-01
;  TG831  H831     1.0080     0.000    A    2.50000E-01   1.25520E-01
;  TG816  H816     1.0080     0.000    A    2.50000E-01   1.25520E-01
;  TG800  C800    12.0110     0.000    A    3.50000E-01   2.76144E-01
;  TG811  C811    12.0110     0.000    A    3.50000E-01   2.76144E-01
;  TG823  H823     1.0080     0.000    A    2.50000E-01   1.25520E-01
;  TG813  O813    15.9990     0.000    A    2.90000E-01   5.85760E-01
;  TG826  H826     1.0080     0.000    A    2.50000E-01   1.25520E-01
;  TG835  H835     1.0080     0.000    A    2.50000E-01   1.25520E-01
;  TG819  H819     1.0080     0.000    A    2.50000E-01   1.25520E-01
;  TG805  C805    12.0110     0.000    A    3.50000E-01   2.76144E-01
;  TG827  H827     1.0080     0.000    A    2.50000E-01   1.25520E-01
;  TG812  C812    12.0110     0.000    A    3.50000E-01   2.76144E-01
;  TG808  C808    12.0110     0.000    A    3.50000E-01   2.76144E-01
;  TG807  O807    15.9990     0.000    A    2.90000E-01   5.85760E-01
;  TG817  H817     1.0080     0.000    A    2.50000E-01   1.25520E-01
;  TG804  O804    15.9990     0.000    A    2.90000E-01   5.85760E-01

[ moleculetype ]
; Name               nrexcl
TGL                   3

[ atoms ]
;   nr       type  resnr residue  atom   cgnr     charge       mass  
     1   TGC      1    TGL   C00      1    -0.0521    12.0110 
     2   TGO      1    TGL   O01      1    -0.3767    15.9990 
     3   TGC      1    TGL   C02      1     0.0027    12.0110 
     4   TGC      1    TGL   C03      1     0.0021    12.0110 
     5   TGO      1    TGL   O04      1    -0.3688    15.9990 
     6   TGC      1    TGL   C05      1    -0.0279    12.0110 
     7   TGC      1    TGL   C06      1    -0.0272    12.0110 
     8   TGO      1    TGL   O07      1    -0.3731    15.9990 
     9   TGC      1    TGL   C08      1     0.0005    12.0110 
    10   TGC      1    TGL   C09      1     0.0025    12.0110 
    11   TGO      1    TGL   O0A      1    -0.3666    15.9990 
    12   TGC      1    TGL   C0B      1    -0.0263    12.0110 
    13   TGC      1    TGL   C0C      1    -0.0326    12.0110 
    14   TGO      1    TGL   O0D      1    -0.3687    15.9990 
    15   TGC      1    TGL   C0E      1    -0.0562    12.0110 
    16   TGH      1    TGL   H0F      1     0.0817     1.0080 
    17   TGH      1    TGL   H0G      1     0.0817     1.0080 
    18   TGH      1    TGL   H0H      1     0.0817     1.0080 
    19   TGH      1    TGL   H0I      1     0.0917     1.0080 
    20   TGH      1    TGL   H0J      1     0.0917     1.0080 
    21   TGH      1    TGL   H0K      1     0.0911     1.0080 
    22   TGH      1    TGL   H0M      1     0.0911     1.0080 
    23   TGH      1    TGL   H0N      1     0.1003     1.0080 
    24   TGH      1    TGL   H0O      1     0.1003     1.0080 
    25   TGH      1    TGL   H0P      1     0.1111     1.0080 
    26   TGH      1    TGL   H0Q      1     0.1111     1.0080 
    27   TGH      1    TGL   H0R      1     0.0914     1.0080 
    28   TGH      1    TGL   H0S      1     0.0914     1.0080 
    29   TGH      1    TGL   H0T      1     0.0954     1.0080 
    30   TGH      1    TGL   H0U      1     0.0954     1.0080 
    31   TGH      1    TGL   H0V      1     0.1043     1.0080 
    32   TGH      1    TGL   H0W      1     0.1043     1.0080 
    33   TGH      1    TGL   H0X      2     0.1008     1.0080 
    34   TGH      1    TGL   H0Y      2     0.1008     1.0080 
    35   TGH      1    TGL   H0Z      2     0.0837     1.0080 
    36   TGH      1    TGL   H10      2     0.0837     1.0080 
    37   TGH      1    TGL   H11      2     0.0837     1.0080 

[ bonds ]
    2     1     1      0.1410 267776.000
    3     2     1      0.1410 267776.000
    4     3     1      0.1529 224262.400
    5     4     1      0.1410 267776.000
    6     5     1      0.1410 267776.000
    7     6     1      0.1529 224262.400
    8     7     1      0.1410 267776.000
    9     8     1      0.1410 267776.000
   10     9     1      0.1529 224262.400
   11    10     1      0.1410 267776.000
   12    11     1      0.1410 267776.000
   13    12     1      0.1529 224262.400
   14    13     1      0.1410 267776.000
   15    14     1      0.1410 267776.000
   16     1     1      0.1090 284512.000
   17     1     1      0.1090 284512.000
   18     1     1      0.1090 284512.000
   19     3     1      0.1090 284512.000
   20     3     1      0.1090 284512.000
   21     4     1      0.1090 284512.000
   22     4     1      0.1090 284512.000
   23     6     1      0.1090 284512.000
   24     6     1      0.1090 284512.000
   25     7     1      0.1090 284512.000
   26     7     1      0.1090 284512.000
   27     9     1      0.1090 284512.000
   28     9     1      0.1090 284512.000
   29    10     1      0.1090 284512.000
   30    10     1      0.1090 284512.000
   31    12     1      0.1090 284512.000
   32    12     1      0.1090 284512.000
   33    13     1      0.1090 284512.000
   34    13     1      0.1090 284512.000
   35    15     1      0.1090 284512.000
   36    15     1      0.1090 284512.000
   37    15     1      0.1090 284512.000

[ angles ]
;  ai    aj    ak funct            c0            c1            c2            c3 
    1     2     3     1    109.500    502.080
    2     3     4     1    109.500    418.400
    3     4     5     1    109.500    418.400
    4     5     6     1    109.500    502.080
    5     6     7     1    109.500    418.400
    6     7     8     1    109.500    418.400
    7     8     9     1    109.500    502.080
    8     9    10     1    109.500    418.400
    9    10    11     1    109.500    418.400
   10    11    12     1    109.500    502.080
   11    12    13     1    109.500    418.400
   12    13    14     1    109.500    418.400
   13    14    15     1    109.500    502.080
    2     1    16     1    109.500    292.880
    2     1    17     1    109.500    292.880
    2     1    18     1    109.500    292.880
    2     3    19     1    109.500    292.880
    2     3    20     1    109.500    292.880
    3     4    21     1    110.700    313.800
    3     4    22     1    110.700    313.800
    5     6    23     1    109.500    292.880
    5     6    24     1    109.500    292.880
    6     7    25     1    110.700    313.800
    6     7    26     1    110.700    313.800
    8     9    27     1    109.500    292.880
    8     9    28     1    109.500    292.880
    9    10    29     1    110.700    313.800
    9    10    30     1    110.700    313.800
   11    12    31     1    109.500    292.880
   11    12    32     1    109.500    292.880
   12    13    33     1    110.700    313.800
   12    13    34     1    110.700    313.800
   14    15    35     1    109.500    292.880
   14    15    36     1    109.500    292.880
   14    15    37     1    109.500    292.880
   33    13    34     1    107.800    276.144
   31    12    32     1    107.800    276.144
   35    15    37     1    107.800    276.144
   36    15    37     1    107.800    276.144
   35    15    36     1    107.800    276.144
    7     6    24     1    110.700    313.800
   14    13    33     1    109.500    292.880
    8     7    26     1    109.500    292.880
   10     9    28     1    110.700    313.800
   11    10    29     1    109.500    292.880
   16     1    18     1    107.800    276.144
    4     3    19     1    110.700    313.800
   21     4    22     1    107.800    276.144
   14    13    34     1    109.500    292.880
   13    12    31     1    110.700    313.800
    5     4    22     1    109.500    292.880
    8     7    25     1    109.500    292.880
   25     7    26     1    107.800    276.144
   27     9    28     1    107.800    276.144
   16     1    17     1    107.800    276.144
   17     1    18     1    107.800    276.144
   19     3    20     1    107.800    276.144
   13    12    32     1    110.700    313.800
    5     4    21     1    109.500    292.880
    4     3    20     1    110.700    313.800
    7     6    23     1    110.700    313.800
   23     6    24     1    107.800    276.144
   10     9    27     1    110.700    313.800
   11    10    30     1    109.500    292.880
   29    10    30     1    107.800    276.144

[ dihedrals ]
; IMPROPER DIHEDRAL ANGLES 
;  ai    aj    ak    al funct            c0            c1            c2            c3            c4            c5

[ dihedrals ]
; PROPER DIHEDRAL ANGLES
;  ai    aj    ak    al funct            c0            c1            c2            c3            c4            c5
    4    3    2    1        3       1.715   2.845   1.046  -5.607  -0.000   0.000
   13   12   11   10        3       1.715   2.845   1.046  -5.607  -0.000   0.000
    7    6    5    4        3       1.715   2.845   1.046  -5.607  -0.000   0.000
   10    9    8    7        3       1.715   2.845   1.046  -5.607  -0.000   0.000
   12   11   10    9        3       1.715   2.845   1.046  -5.607  -0.000   0.000
   15   14   13   12        3       1.715   2.845   1.046  -5.607  -0.000   0.000
    6    5    4    3        3       1.715   2.845   1.046  -5.607  -0.000   0.000
    9    8    7    6        3       1.715   2.845   1.046  -5.607  -0.000   0.000
   33   13   12   31        3       0.628   1.883   0.000  -2.510  -0.000   0.000
   25    7    6   24        3       0.628   1.883   0.000  -2.510  -0.000   0.000
   22    4    3   20        3       0.628   1.883   0.000  -2.510  -0.000   0.000
   22    4    3   19        3       0.628   1.883   0.000  -2.510  -0.000   0.000
   29   10    9   27        3       0.628   1.883   0.000  -2.510  -0.000   0.000
   26    7    6   23        3       0.628   1.883   0.000  -2.510  -0.000   0.000
   21    4    3   19        3       0.628   1.883   0.000  -2.510  -0.000   0.000
   26    7    6   24        3       0.628   1.883   0.000  -2.510  -0.000   0.000
   33   13   12   32        3       0.628   1.883   0.000  -2.510  -0.000   0.000
   21    4    3   20        3       0.628   1.883   0.000  -2.510  -0.000   0.000
   29   10    9   28        3       0.628   1.883   0.000  -2.510  -0.000   0.000
   30   10    9   28        3       0.628   1.883   0.000  -2.510  -0.000   0.000
   30   10    9   27        3       0.628   1.883   0.000  -2.510  -0.000   0.000
   34   13   12   31        3       0.628   1.883   0.000  -2.510  -0.000   0.000
   34   13   12   32        3       0.628   1.883   0.000  -2.510  -0.000   0.000
   25    7    6   23        3       0.628   1.883   0.000  -2.510  -0.000   0.000
   24    6    7    8        3       0.979   2.937   0.000  -3.916  -0.000   0.000
   29   10    9    8        3       0.979   2.937   0.000  -3.916  -0.000   0.000
   30   10    9    8        3       0.979   2.937   0.000  -3.916  -0.000   0.000
   26    7    6    5        3       0.979   2.937   0.000  -3.916  -0.000   0.000
   33   13   12   11        3       0.979   2.937   0.000  -3.916  -0.000   0.000
   21    4    3    2        3       0.979   2.937   0.000  -3.916  -0.000   0.000
   25    7    6    5        3       0.979   2.937   0.000  -3.916  -0.000   0.000
   19    3    4    5        3       0.979   2.937   0.000  -3.916  -0.000   0.000
   31   12   13   14        3       0.979   2.937   0.000  -3.916  -0.000   0.000
   32   12   13   14        3       0.979   2.937   0.000  -3.916  -0.000   0.000
   27    9   10   11        3       0.979   2.937   0.000  -3.916  -0.000   0.000
   22    4    3    2        3       0.979   2.937   0.000  -3.916  -0.000   0.000
   28    9   10   11        3       0.979   2.937   0.000  -3.916  -0.000   0.000
   20    3    4    5        3       0.979   2.937   0.000  -3.916  -0.000   0.000
   23    6    7    8        3       0.979   2.937   0.000  -3.916  -0.000   0.000
   34   13   12   11        3       0.979   2.937   0.000  -3.916  -0.000   0.000
   30   10   11   12        3       1.590   4.770   0.000  -6.360  -0.000   0.000
   16    1    2    3        3       1.590   4.770   0.000  -6.360  -0.000   0.000
   22    4    5    6        3       1.590   4.770   0.000  -6.360  -0.000   0.000
   25    7    8    9        3       1.590   4.770   0.000  -6.360  -0.000   0.000
   18    1    2    3        3       1.590   4.770   0.000  -6.360  -0.000   0.000
   31   12   11   10        3       1.590   4.770   0.000  -6.360  -0.000   0.000
   29   10   11   12        3       1.590   4.770   0.000  -6.360  -0.000   0.000
   28    9    8    7        3       1.590   4.770   0.000  -6.360  -0.000   0.000
   37   15   14   13        3       1.590   4.770   0.000  -6.360  -0.000   0.000
   21    4    5    6        3       1.590   4.770   0.000  -6.360  -0.000   0.000
   35   15   14   13        3       1.590   4.770   0.000  -6.360  -0.000   0.000
   33   13   14   15        3       1.590   4.770   0.000  -6.360  -0.000   0.000
   36   15   14   13        3       1.590   4.770   0.000  -6.360  -0.000   0.000
   23    6    5    4        3       1.590   4.770   0.000  -6.360  -0.000   0.000
   17    1    2    3        3       1.590   4.770   0.000  -6.360  -0.000   0.000
   32   12   11   10        3       1.590   4.770   0.000  -6.360  -0.000   0.000
   19    3    2    1        3       1.590   4.770   0.000  -6.360  -0.000   0.000
   27    9    8    7        3       1.590   4.770   0.000  -6.360  -0.000   0.000
   26    7    8    9        3       1.590   4.770   0.000  -6.360  -0.000   0.000
   20    3    2    1        3       1.590   4.770   0.000  -6.360  -0.000   0.000
   24    6    5    4        3       1.590   4.770   0.000  -6.360  -0.000   0.000
   34   13   14   15        3       1.590   4.770   0.000  -6.360  -0.000   0.000
   14   13   12   11        3      -1.151   1.151   0.000  -0.000  -0.000   0.000
   11   10    9    8        3      -1.151   1.151   0.000  -0.000  -0.000   0.000
    8    7    6    5        3      -1.151   1.151   0.000  -0.000  -0.000   0.000
    5    4    3    2        3      -1.151   1.151   0.000  -0.000  -0.000   0.000

[ pairs ]
     1     4    1
     2     5    1
     3     6    1
     4     7    1
     5     8    1
     6     9    1
     7    10    1
     8    11    1
     3    16    1
     3    17    1
     1    19    1
     9    12    1
     3    18    1
     1    20    1
    10    13    1
     2    21    1
     5    19    1
     2    22    1
    11    14    1
     5    20    1
    12    15    1
     6    21    1
     4    23    1
     6    22    1
     4    24    1
     5    25    1
     8    23    1
     5    26    1
     8    24    1
     9    25    1
     7    27    1
     9    26    1
     7    28    1
     8    29    1
    11    27    1
     8    30    1
    11    28    1
    19    21    1
    20    21    1
    19    22    1
    12    29    1
    10    31    1
    20    22    1
    12    30    1
    10    32    1
    11    33    1
    14    31    1
    11    34    1
    14    32    1
    23    25    1
    15    33    1
    13    35    1
    24    25    1
    23    26    1
    15    34    1
    13    36    1
    24    26    1
    13    37    1
    27    29    1
    28    29    1
    27    30    1
    28    30    1
    31    33    1
    32    33    1
    31    34    1
    32    34    1
