
;
; GENERATED BY LigParGen Server
; Jorgensen Lab @ Yale University 
; edited by VMS-Aug-18-2026
; [ atomtypes ]
;  TF810  H810     1.0080     0.000    A    2.50000E-01   1.25520E-01
;  TF802  C802    12.0110     0.000    A    3.50000E-01   2.76144E-01
;  TF800  C800    12.0110     0.000    A    3.50000E-01   2.76144E-01
;  TF801  C801    12.0110     0.000    A    3.50000E-01   2.76144E-01
;  TF807  H807     1.0080     0.000    A    2.50000E-01   1.25520E-01
;  TF803  O803    15.9990     0.000    A    2.90000E-01   5.85760E-01
;  TF806  H806     1.0080     0.000    A    2.50000E-01   1.25520E-01
;  TF812  H812     1.0080     0.000    A    2.50000E-01   1.25520E-01
;  TF809  H809     1.0080     0.000    A    2.50000E-01   1.25520E-01
;  TF805  H805     1.0080     0.000    A    2.50000E-01   1.25520E-01
;  TF808  H808     1.0080     0.000    A    2.50000E-01   1.25520E-01
;  TF811  H811     1.0080     0.000    A    2.50000E-01   1.25520E-01
;  TF804  C804    12.0110     0.000    A    3.50000E-01   2.76144E-01

[ moleculetype ]
; Name               nrexcl
THF
                   3
[ atoms ]
;   nr       type  resnr residue  atom   cgnr     charge       mass  
     1   TFC      1    THF   C00      1    -0.2197    12.0110 
     2   TFC      1    THF   C01      1    -0.2199    12.0110 
     3   TFC      1    THF   C02      1     0.0005    12.0110 
     4   TFO      1    THF   O03      1    -0.3829    15.9990 
     5   TFC      1    THF   C04      1     0.0008    12.0110 
     6   TFH      1    THF   H05      1     0.1077     1.0080 
     7   TFH      1    THF   H06      1     0.1077     1.0080 
     8   TFH      1    THF   H07      1     0.1078     1.0080 
     9   TFH      1    THF   H08      1     0.1078     1.0080 
    10   TFH      1    THF   H09      1     0.0978     1.0080 
    11   TFH      1    THF   H0A      1     0.0978     1.0080 
    12   TFH      1    THF   H0B      1     0.0973     1.0080 
    13   TFH      1    THF   H0C      1     0.0973     1.0080 

[ bonds ]
    2     1     1      0.1529 224262.400
    3     2     1      0.1529 224262.400
    4     3     1      0.1410 267776.000
    5     1     1      0.1529 224262.400
    6     1     1      0.1090 284512.000
    7     1     1      0.1090 284512.000
    8     2     1      0.1090 284512.000
    9     2     1      0.1090 284512.000
   10     3     1      0.1090 284512.000
   11     3     1      0.1090 284512.000
   12     5     1      0.1090 284512.000
   13     5     1      0.1090 284512.000
    5     4     1      0.1410 267776.000

[ angles ]
;  ai    aj    ak funct            c0            c1            c2            c3 
    1     2     3     1    112.700    488.273
    2     3     4     1    109.500    418.400
    2     1     5     1    112.700    488.273
    2     1     6     1    110.700    313.800
    2     1     7     1    110.700    313.800
    1     2     8     1    110.700    313.800
    1     2     9     1    110.700    313.800
    2     3    10     1    110.700    313.800
    2     3    11     1    110.700    313.800
    1     5    12     1    110.700    313.800
    1     5    13     1    110.700    313.800
    4     3    11     1    109.500    292.880
    5     1     7     1    110.700    313.800
    4     5    13     1    109.500    292.880
    1     5     4     1    109.500    418.400
    4     3    10     1    109.500    292.880
    3     2     8     1    110.700    313.800
    8     2     9     1    107.800    276.144
    5     1     6     1    110.700    313.800
   12     5    13     1    107.800    276.144
    4     5    12     1    109.500    292.880
   10     3    11     1    107.800    276.144
    3     2     9     1    110.700    313.800
    6     1     7     1    107.800    276.144
    3     4     5     1    109.500    502.080

[ dihedrals ]
; IMPROPER DIHEDRAL ANGLES 
;  ai    aj    ak    al funct            c0            c1            c2            c3            c4            c5

[ dihedrals ]
; PROPER DIHEDRAL ANGLES
;  ai    aj    ak    al funct            c0            c1            c2            c3            c4            c5
    5    1    2    3        3       2.301  -1.464   0.837  -1.674  -0.000   0.000
    5    4    3    2        3       1.715   2.845   1.046  -5.607  -0.000   0.000
    3    4    5    1        3       1.715   2.845   1.046  -5.607  -0.000   0.000
    6    1    2    3        3       0.628   1.883   0.000  -2.510  -0.000   0.000
    9    2    1    5        3       0.628   1.883   0.000  -2.510  -0.000   0.000
   11    3    2    1        3       0.628   1.883   0.000  -2.510  -0.000   0.000
   13    5    1    2        3       0.628   1.883   0.000  -2.510  -0.000   0.000
   12    5    1    2        3       0.628   1.883   0.000  -2.510  -0.000   0.000
    7    1    2    3        3       0.628   1.883   0.000  -2.510  -0.000   0.000
   10    3    2    1        3       0.628   1.883   0.000  -2.510  -0.000   0.000
    8    2    1    5        3       0.628   1.883   0.000  -2.510  -0.000   0.000
    8    2    1    7        3       0.628   1.883   0.000  -2.510  -0.000   0.000
   11    3    2    9        3       0.628   1.883   0.000  -2.510  -0.000   0.000
   12    5    1    6        3       0.628   1.883   0.000  -2.510  -0.000   0.000
   10    3    2    8        3       0.628   1.883   0.000  -2.510  -0.000   0.000
    9    2    1    6        3       0.628   1.883   0.000  -2.510  -0.000   0.000
   12    5    1    7        3       0.628   1.883   0.000  -2.510  -0.000   0.000
    8    2    1    6        3       0.628   1.883   0.000  -2.510  -0.000   0.000
    9    2    1    7        3       0.628   1.883   0.000  -2.510  -0.000   0.000
   11    3    2    8        3       0.628   1.883   0.000  -2.510  -0.000   0.000
   10    3    2    9        3       0.628   1.883   0.000  -2.510  -0.000   0.000
   13    5    1    6        3       0.628   1.883   0.000  -2.510  -0.000   0.000
   13    5    1    7        3       0.628   1.883   0.000  -2.510  -0.000   0.000
    8    2    3    4        3       0.979   2.937   0.000  -3.916  -0.000   0.000
    7    1    5    4        3       0.979   2.937   0.000  -3.916  -0.000   0.000
    9    2    3    4        3       0.979   2.937   0.000  -3.916  -0.000   0.000
    6    1    5    4        3       0.979   2.937   0.000  -3.916  -0.000   0.000
   13    5    4    3        3       1.590   4.770   0.000  -6.360  -0.000   0.000
   12    5    4    3        3       1.590   4.770   0.000  -6.360  -0.000   0.000
   11    3    4    5        3       1.590   4.770   0.000  -6.360  -0.000   0.000
   10    3    4    5        3       1.590   4.770   0.000  -6.360  -0.000   0.000
    4    5    1    2        3       2.874   0.582   2.092  -5.548  -0.000   0.000
    4    3    2    1        3       2.874   0.582   2.092  -5.548  -0.000   0.000

[ pairs ]
     3     6    1
     4     6    1
     3     7    1
     4     7    1
     1    10    1
     4     8    1
     1    11    1
     5     8    1
     4     9    1
     6     8    1
     5     9    1
     2    12    1
     7     8    1
     6     9    1
     5    10    1
     3    12    1
     2    13    1
     7     9    1
     5    11    1
     3    13    1
     8    10    1
     6    12    1
     9    10    1
     8    11    1
     7    12    1
     6    13    1
     9    11    1
     7    13    1
